8
	Energy: -3124.1864832
P        -0.0000003928   0.0000057669   0.7613906112
Cl        0.0006230458   1.8245893610   1.5525773041
Cl        1.5798565930  -0.9128310350   1.5525092421
Cl       -1.5804796206  -0.9117530428   1.5525087901
B        -0.0000000522   0.0000009961  -1.2524138192
Cl       -1.5296557391   0.8836277322  -1.6563704351
Cl       -0.0004130219  -1.7665523810  -1.6563182263
Cl        1.5300681880   0.8829126025  -1.6563714668