8
	Energy: -15801.6545788090
P        -0.7729828450   0.0000059147  -0.0000065447
Br       -1.6194809640  -1.9591784976  -0.3734116817
Br       -1.6195199458   1.3029812310  -1.5099874885
Br       -1.6194814205   0.6561897394   1.8834108823
B         1.2218353315   0.0000082750  -0.0000085094
Br        1.6739684796  -0.6340215400  -1.8197495408
Br        1.6739646396   1.8929607761   0.3608044469
Br        1.6739167246  -1.2589448987   1.4589484359